<simulation verbosity='high'>
   <prng>
      <seed>3141</seed>
      <state shape='(624)'>
       [ 3083032302, 2432837943, 3224675291, 1559292328, 1834844945, 
         4185707909, 4020649634, 3097558161, 2851492292, 2772265316, 
         1223647795, 2393100194, 4221676740, 988393868, 2517767735, 
         1213132515, 1725198785, 1487353912, 902646758, 2308492250, 
         752240012, 3375235915, 3784036478, 4022194551, 2559973020, 
         771362045, 3789580611, 4023304908, 3108221165, 1901720258, 
         3285266285, 1962496809, 2227363032, 1044712919, 274777759, 
         949095435, 1627060516, 4069111266, 3598046251, 4232206588, 
         1238773979, 1651931436, 933616005, 3224177254, 3261777224, 
         673915789, 2738691388, 2484514932, 3797557602, 3078529705, 
         2267916246, 1026490184, 2517676942, 3075769070, 539941669, 
         1642654244, 3513269285, 527664156, 2827547649, 2754330628, 
         615277501, 4199969101, 2751824837, 1801868239, 2234834971, 
         4201354352, 2916470354, 1332009735, 1272784414, 2536986634, 
         1444713477, 3830025893, 4064560862, 3100247765, 1338955077, 
         2352310006, 684163648, 1598998135, 274186727, 1304003329, 
         2457817891, 557164429, 3574279505, 1654288745, 2307974974, 
         1258997736, 3889167659, 914921870, 3102725966, 2186017672, 
         1788312107, 2150144218, 2076972776, 3350787656, 3866891175, 
         2123704869, 222955349, 2934939911, 1156238439, 1042626378, 
         3096665216, 3893730692, 2126957237, 3227853054, 2998340271, 
         2887928851, 2977468570, 3507511383, 238872046, 2059485740, 
         1944553489, 1911821689, 3804530230, 3558364186, 36789298, 
         3415393419, 3464602754, 1112394632, 3047790720, 513635810, 
         3042918373, 3873578076, 137929539, 826819237, 2450634875, 
         4231127431, 2427810365, 46542128, 3820344156, 1430202741, 
         3337267022, 3798634691, 3665453465, 3444359506, 2505522430, 
         1078237821, 246176350, 1256411434, 418117371, 2678295842, 
         2003095458, 1236097346, 1193213026, 3642502697, 3389732184, 
         1347308263, 4064843316, 1337535036, 306504286, 1738004615, 
         3732336229, 4201194306, 3856262163, 2610049245, 2341094798, 
         3442977448, 437992291, 2402539728, 290763696, 2195161672, 
         3492010018, 1444784690, 3166603832, 4082455817, 370446773, 
         770245249, 2367427365, 2540358044, 2294603515, 3110373618, 
         4204370310, 375361383, 4207484147, 3088198179, 3336278155, 
         743628199, 2960136623, 1905181869, 3423707710, 3402485282, 
         4119916290, 3493109508, 3819304775, 3380107557, 3375689317, 
         1821771511, 580859870, 1914573009, 2625182279, 3225523094, 
         3964652477, 2661099198, 265119648, 2913042847, 2190223026, 
         2201789417, 2765297781, 2428189530, 3829228150, 1181441762, 
         3991665779, 2939674400, 2259267602, 504990704, 3248907666, 
         2538923738, 220381897, 3662444894, 311608331, 1247249830, 
         3460889970, 3839139711, 3792750998, 205353745, 707210745, 
         1667038985, 1877304579, 1060465146, 147422296, 2150960341, 
         2341290401, 3136205250, 827006040, 958411062, 1448863925, 
         1952308124, 3553611450, 2697687349, 353706095, 1437109933, 
         3950934901, 3489994593, 3590863728, 2660475370, 1481200110, 
         2383384655, 1083384867, 2447093315, 2248836964, 1046083437, 
         1703372770, 2199702877, 2297961256, 1131021276, 4173197802, 
         3417993350, 2262133116, 878923883, 632426733, 3367766861, 
         2653437037, 3719791098, 926955352, 1333937582, 2544676690, 
         1107361864, 1570182071, 1658383988, 1967888220, 659870200, 
         2989538186, 1213891470, 4252422732, 640772551, 3325963615, 
         915872122, 3654031471, 1452702707, 989234069, 317618510, 
         361562315, 4001747527, 2337742773, 1706041360, 1529355881, 
         2279138022, 3625133798, 2943808848, 4164516892, 2132651166, 
         1436772628, 3710480428, 4082960860, 2651112879, 2420134541, 
         239882135, 1217166991, 656254003, 4157931150, 2804805526, 
         2138741214, 3867575437, 190014831, 3720382771, 1101823476, 
         4233740715, 639175576, 3747507281, 3168902915, 1188877127, 
         2546764059, 186212035, 420478705, 3439801813, 2969647455, 
         2366485258, 2756230927, 967149113, 1191116782, 2192666979, 
         490873315, 3925686585, 1648358665, 150440460, 845294851, 
         2574851846, 2224737554, 1012194368, 2256932659, 3773520567, 
         2838649750, 2179094800, 1761519101, 2931858575, 2663085997, 
         3899645362, 1514496573, 932465652, 4059530836, 2387885741, 
         2431829630, 1116843164, 3436416276, 1671022445, 2484464702, 
         2769176247, 1652539510, 1612413988, 613737292, 2734284325, 
         480722875, 1579596447, 2779015158, 1205539338, 957734240, 
         2162654864, 4046771258, 4244032156, 497751187, 3970506149, 
         4019154915, 169647773, 1874945033, 998174406, 3236137405, 
         3081636780, 3054588710, 3528593278, 1149425068, 2303678480, 
         3535008060, 3224216919, 2147915811, 3502864564, 3611729799, 
         665692726, 3607895200, 112503617, 1062518021, 40835089, 
         1101922077, 295600395, 2330776083, 1254160022, 1855082789, 
         2144024915, 2936748948, 1888986192, 1722695425, 2964499102, 
         186878398, 3108230077, 1165066053, 1568236516, 248006275, 
         1842380108, 738671638, 3585885511, 1192356427, 971800297, 
         4123856949, 1891488974, 2292898764, 3121403186, 202787494, 
         4193704649, 4098062875, 1870422244, 4048696219, 2228334267, 
         1122650074, 2560762, 1111243369, 3788283863, 3796751207, 
         3457969653, 2499166343, 4123724031, 4020518595, 81030455, 
         2173892513, 2614307609, 1890920978, 2699641823, 3482197465, 
         3245330786, 1834177827, 822540924, 2290770452, 528888730, 
         1897283867, 1547721411, 3273980878, 2195092688, 462013969, 
         1787999465, 2086629249, 1449115580, 1869877906, 2568610400, 
         731839326, 4024750915, 3424564248, 2974070866, 3792891489, 
         2682453398, 4120574545, 4178157090, 3013154571, 2406826115, 
         3287988734, 684042841, 3170186826, 2174052608, 4105215124, 
         1333139580, 2398568645, 1188729426, 3172083856, 421027645, 
         1808351313, 1859032304, 4067300935, 2879766244, 211337657, 
         2959181506, 192928508, 4018682430, 3974040357, 1444633388, 
         3132849708, 1836139702, 3050879027, 1999880918, 1760586424, 
         783799949, 3177920950, 3954823728, 815319581, 1494649749, 
         1810046147, 3727283595, 241103937, 112327938, 3825385891, 
         212991267, 2562067659, 1214980623, 2817938297, 1147507042, 
         3272150344, 3765120224, 2606640033, 2770253470, 2377669484, 
         892151296, 3121228489, 4192344389, 3610254485, 410014955, 
         3168391696, 3923298457, 3333955438, 3584890742, 1912091633, 
         2453673418, 690990343, 3228463336, 492210612, 3092415417, 
         4129087649, 2778766499, 1347309239, 1259843017, 2940757974, 
         1446445207, 638515914, 3791586798, 20481041, 2449708211, 
         2609811940, 4079043030, 2679401246, 1650336527, 2754162290, 
         105998964, 2572164096, 656307290, 2879842448, 1813554568, 
         3093694426, 1684251323, 2565594850, 1655709432, 3277042371, 
         2073265616, 3326508412, 3335590583, 3258419879, 4026032611, 
         3801313010, 995626859, 304507076, 3894898804, 2132267925, 
         4262893712, 3679947918, 793687061, 678812240, 3384836136, 
         2585810032, 2747410235, 1327625249, 644500111, 2993419747, 
         1402583216, 2519987211, 289919905, 811600581, 1576845618, 
         3743719780, 1866485817, 161155960, 1137830935, 3369200848, 
         1057701925, 3570792887, 2869997366, 3913244798, 3014174240, 
         1835282054, 2130808726, 603884721, 1536732929, 2394333058, 
         4290913252, 3316508187, 2076389036, 275847128, 69217564, 
         874203231, 2108518187, 2426382993, 2737893257, 550088422, 
         3348141688, 2267697489, 2876754077, 775049311, 4087375984, 
         826489212, 2893160193, 4011160740, 610306668, 2037511854, 
         1974886647, 631371809, 1355398902, 1771129036, 128117506, 
         252477344, 2794414885, 3236144018, 2256996005, 3189470093, 
         3940882528, 2560968253, 3908487536, 2167524660, 1891233034, 
         3292372569, 325392574, 699746729, 888029481, 2832853387, 
         3602060636, 3001574434, 3347212753, 2590145551, 1035384647, 
         3087776441, 230102330, 1404369608, 3768922278, 3221157550, 
         4027813303, 2194028449, 1221893591, 1562153378, 509001325, 
         440440361, 634509888, 78087961, 4020425068 ]
      </state>
      <set_pos>136</set_pos>
   </prng>
   <output prefix='simulation'>
      <properties shape='(6)'>
       [ time{femtosecond}, conserved, temperature{kelvin}, kinetic_cv, potential, 
         pressure_cv{bar} ]
      </properties>
      <trajectory filename='pos' cell_units='angstrom'>positions{angstrom}</trajectory>
      <checkpoint stride='20'>51</checkpoint>
   </output>
   <step>1000</step>
   <ffsocket name='mypot'>
      <port>3141</port>
      <timeout>  1.00000000e+02</timeout>
   </ffsocket>
   <system>
      <forces>
         <force forcefield='mypot'>
         </force>
      </forces>
      <ensemble>
         <temperature>  1.58340760e-05</temperature>
         <eens>  1.37877600e-03</eens>
         <hamiltonian_weights shape='(1)'> [   1.00000000e+00 ] </hamiltonian_weights>
         <time>  2.06706865e+04</time>
      </ensemble>
      <motion mode='dynamics'>
         <dynamics mode='nvt'>
            <thermostat mode='pile_l'>
               <ethermo>  3.05518862e-02</ethermo>
               <tau>  4.13413730e+03</tau>
            </thermostat>
            <timestep>  2.06706865e+01</timestep>
            <nmts shape='(1)'> [ 1 ] </nmts>
         </dynamics>
      </motion>
      <beads natoms='2' nbeads='1'>
         <q shape='(1, 6)'>
          [   5.63326427e-01,  -7.50704107e-01,  -1.36546623e+00,  -5.63326427e-01,   7.50704107e-01, 
              4.56546623e+00 ]
         </q>
         <p shape='(1, 6)'>
          [   1.66897735e-01,  -1.18235057e-01,   2.28402053e-01,  -1.66897735e-01,   1.18235057e-01, 
             -2.28402053e-01 ]
         </p>
         <m shape='(2)'> [   1.83736223e+03,   1.83736223e+03 ] </m>
         <names shape='(2)'> [ H, H ] </names>
      </beads>
      <cell shape='(3, 3)'>
       [   1.50000000e+01,   9.18485099e-16,   9.18485099e-16,   0.00000000e+00,   1.50000000e+01, 
           9.18485099e-16,   0.00000000e+00,   0.00000000e+00,   1.50000000e+01 ]
      </cell>
   </system>
</simulation>
