2
# CELL(abcABC):    7.93766     7.93766     7.93766    90.00000    90.00000    90.00000  Step:           0  Bead:       0 positions{angstrom}  cell{angstrom}
       H  0.00000e+00  0.00000e+00  0.00000e+00
       H  0.00000e+00  0.00000e+00  1.69337e+00
2
# CELL(abcABC):    7.93766     7.93766     7.93766    90.00000    90.00000    90.00000  Step:           1  Bead:       0 positions{angstrom}  cell{angstrom}
       H  1.59969e-03 -7.91007e-04 -2.63323e-04
       H -1.59969e-03  7.91007e-04  1.69363e+00
2
# CELL(abcABC):    7.93766     7.93766     7.93766    90.00000    90.00000    90.00000  Step:           2  Bead:       0 positions{angstrom}  cell{angstrom}
       H  3.10000e-03 -1.58717e-03 -3.75123e-03
       H -3.10000e-03  1.58717e-03  1.69712e+00
2
# CELL(abcABC):    7.93766     7.93766     7.93766    90.00000    90.00000    90.00000  Step:           3  Bead:       0 positions{angstrom}  cell{angstrom}
       H  4.62976e-03 -2.30199e-03 -1.04454e-02
       H -4.62976e-03  2.30199e-03  1.70381e+00
2
# CELL(abcABC):    7.93766     7.93766     7.93766    90.00000    90.00000    90.00000  Step:           4  Bead:       0 positions{angstrom}  cell{angstrom}
       H  6.21329e-03 -2.90451e-03 -2.03598e-02
       H -6.21329e-03  2.90451e-03  1.71373e+00
2
# CELL(abcABC):    7.93766     7.93766     7.93766    90.00000    90.00000    90.00000  Step:           5  Bead:       0 positions{angstrom}  cell{angstrom}
       H  7.72160e-03 -3.55603e-03 -3.32826e-02
       H -7.72160e-03  3.55603e-03  1.72665e+00
2
# CELL(abcABC):    7.93766     7.93766     7.93766    90.00000    90.00000    90.00000  Step:           6  Bead:       0 positions{angstrom}  cell{angstrom}
       H  9.29880e-03 -4.17813e-03 -4.90555e-02
       H -9.29880e-03  4.17813e-03  1.74242e+00
2
# CELL(abcABC):    7.93766     7.93766     7.93766    90.00000    90.00000    90.00000  Step:           7  Bead:       0 positions{angstrom}  cell{angstrom}
       H  1.08710e-02 -4.80320e-03 -6.75724e-02
       H -1.08710e-02  4.80320e-03  1.76094e+00
2
# CELL(abcABC):    7.93766     7.93766     7.93766    90.00000    90.00000    90.00000  Step:           8  Bead:       0 positions{angstrom}  cell{angstrom}
       H  1.23995e-02 -5.44371e-03 -8.87632e-02
       H -1.23995e-02  5.44371e-03  1.78213e+00
2
# CELL(abcABC):    7.93766     7.93766     7.93766    90.00000    90.00000    90.00000  Step:           9  Bead:       0 positions{angstrom}  cell{angstrom}
       H  1.39948e-02 -6.07851e-03 -1.12423e-01
       H -1.39948e-02  6.07851e-03  1.80579e+00
2
# CELL(abcABC):    7.93766     7.93766     7.93766    90.00000    90.00000    90.00000  Step:          10  Bead:       0 positions{angstrom}  cell{angstrom}
       H  1.56636e-02 -6.76649e-03 -1.38472e-01
       H -1.56636e-02  6.76649e-03  1.83184e+00
2
# CELL(abcABC):    7.93766     7.93766     7.93766    90.00000    90.00000    90.00000  Step:          11  Bead:       0 positions{angstrom}  cell{angstrom}
       H  1.74341e-02 -7.46361e-03 -1.66788e-01
       H -1.74341e-02  7.46361e-03  1.86015e+00
2
# CELL(abcABC):    7.93766     7.93766     7.93766    90.00000    90.00000    90.00000  Step:          12  Bead:       0 positions{angstrom}  cell{angstrom}
       H  1.92082e-02 -8.11822e-03 -1.97161e-01
       H -1.92082e-02  8.11822e-03  1.89053e+00
2
# CELL(abcABC):    7.93766     7.93766     7.93766    90.00000    90.00000    90.00000  Step:          13  Bead:       0 positions{angstrom}  cell{angstrom}
       H  2.10576e-02 -8.77732e-03 -2.29460e-01
       H -2.10576e-02  8.77732e-03  1.92283e+00
2
# CELL(abcABC):    7.93766     7.93766     7.93766    90.00000    90.00000    90.00000  Step:          14  Bead:       0 positions{angstrom}  cell{angstrom}
       H  2.29788e-02 -9.52555e-03 -2.63245e-01
       H -2.29788e-02  9.52555e-03  1.95661e+00
2
# CELL(abcABC):    7.93766     7.93766     7.93766    90.00000    90.00000    90.00000  Step:          15  Bead:       0 positions{angstrom}  cell{angstrom}
       H  2.48232e-02 -1.02091e-02 -2.98533e-01
       H -2.48232e-02  1.02091e-02  1.99190e+00
2
# CELL(abcABC):    7.93766     7.93766     7.93766    90.00000    90.00000    90.00000  Step:          16  Bead:       0 positions{angstrom}  cell{angstrom}
       H  2.66770e-02 -1.09018e-02 -3.35314e-01
       H -2.66770e-02  1.09018e-02  2.02868e+00
2
# CELL(abcABC):    7.93766     7.93766     7.93766    90.00000    90.00000    90.00000  Step:          17  Bead:       0 positions{angstrom}  cell{angstrom}
       H  2.85143e-02 -1.16642e-02 -3.73459e-01
       H -2.85143e-02  1.16642e-02  2.06683e+00
2
# CELL(abcABC):    7.93766     7.93766     7.93766    90.00000    90.00000    90.00000  Step:          18  Bead:       0 positions{angstrom}  cell{angstrom}
       H  3.03934e-02 -1.24686e-02 -4.12734e-01
       H -3.03934e-02  1.24686e-02  2.10610e+00
2
# CELL(abcABC):    7.93766     7.93766     7.93766    90.00000    90.00000    90.00000  Step:          19  Bead:       0 positions{angstrom}  cell{angstrom}
       H  3.22536e-02 -1.33230e-02 -4.52773e-01
       H -3.22536e-02  1.33230e-02  2.14614e+00
2
# CELL(abcABC):    7.93766     7.93766     7.93766    90.00000    90.00000    90.00000  Step:          20  Bead:       0 positions{angstrom}  cell{angstrom}
       H  3.41431e-02 -1.42171e-02 -4.93447e-01
       H -3.41431e-02  1.42171e-02  2.18681e+00
2
# CELL(abcABC):    7.93766     7.93766     7.93766    90.00000    90.00000    90.00000  Step:          21  Bead:       0 positions{angstrom}  cell{angstrom}
       H  3.58550e-02 -1.50251e-02 -5.34637e-01
       H -3.58550e-02  1.50251e-02  2.22800e+00
2
# CELL(abcABC):    7.93766     7.93766     7.93766    90.00000    90.00000    90.00000  Step:          22  Bead:       0 positions{angstrom}  cell{angstrom}
       H  3.76229e-02 -1.58045e-02 -5.76209e-01
       H -3.76229e-02  1.58045e-02  2.26958e+00
2
# CELL(abcABC):    7.93766     7.93766     7.93766    90.00000    90.00000    90.00000  Step:          23  Bead:       0 positions{angstrom}  cell{angstrom}
       H  3.93925e-02 -1.67024e-02 -6.18045e-01
       H -3.93925e-02  1.67024e-02  2.31141e+00
2
# CELL(abcABC):    7.93766     7.93766     7.93766    90.00000    90.00000    90.00000  Step:          24  Bead:       0 positions{angstrom}  cell{angstrom}
       H  4.10922e-02 -1.76036e-02 -6.59908e-01
       H -4.10922e-02  1.76036e-02  2.35327e+00
2
# CELL(abcABC):    7.93766     7.93766     7.93766    90.00000    90.00000    90.00000  Step:          25  Bead:       0 positions{angstrom}  cell{angstrom}
       H  4.27942e-02 -1.84756e-02 -7.01741e-01
       H -4.27942e-02  1.84756e-02  2.39511e+00
2
# CELL(abcABC):    7.93766     7.93766     7.93766    90.00000    90.00000    90.00000  Step:          26  Bead:       0 positions{angstrom}  cell{angstrom}
       H  4.43700e-02 -1.93564e-02 -7.43509e-01
       H -4.43700e-02  1.93564e-02  2.43688e+00
2
# CELL(abcABC):    7.93766     7.93766     7.93766    90.00000    90.00000    90.00000  Step:          27  Bead:       0 positions{angstrom}  cell{angstrom}
       H  4.59371e-02 -2.02740e-02 -7.85053e-01
       H -4.59371e-02  2.02740e-02  2.47842e+00
2
# CELL(abcABC):    7.93766     7.93766     7.93766    90.00000    90.00000    90.00000  Step:          28  Bead:       0 positions{angstrom}  cell{angstrom}
       H  4.75703e-02 -2.12190e-02 -8.26323e-01
       H -4.75703e-02  2.12190e-02  2.51969e+00
2
# CELL(abcABC):    7.93766     7.93766     7.93766    90.00000    90.00000    90.00000  Step:          29  Bead:       0 positions{angstrom}  cell{angstrom}
       H  4.91186e-02 -2.22188e-02 -8.67205e-01
       H -4.91186e-02  2.22188e-02  2.56057e+00
2
# CELL(abcABC):    7.93766     7.93766     7.93766    90.00000    90.00000    90.00000  Step:          30  Bead:       0 positions{angstrom}  cell{angstrom}
       H  5.07274e-02 -2.32178e-02 -9.07649e-01
       H -5.07274e-02  2.32178e-02  2.60102e+00
2
# CELL(abcABC):    7.93766     7.93766     7.93766    90.00000    90.00000    90.00000  Step:          31  Bead:       0 positions{angstrom}  cell{angstrom}
       H  5.23325e-02 -2.42798e-02 -9.47631e-01
       H -5.23325e-02  2.42798e-02  2.64100e+00
2
# CELL(abcABC):    7.93766     7.93766     7.93766    90.00000    90.00000    90.00000  Step:          32  Bead:       0 positions{angstrom}  cell{angstrom}
       H  5.38563e-02 -2.53439e-02 -9.86930e-01
       H -5.38563e-02  2.53439e-02  2.68030e+00
2
# CELL(abcABC):    7.93766     7.93766     7.93766    90.00000    90.00000    90.00000  Step:          33  Bead:       0 positions{angstrom}  cell{angstrom}
       H  5.52756e-02 -2.63065e-02 -1.02551e+00
       H -5.52756e-02  2.63065e-02  2.71888e+00
2
# CELL(abcABC):    7.93766     7.93766     7.93766    90.00000    90.00000    90.00000  Step:          34  Bead:       0 positions{angstrom}  cell{angstrom}
       H  5.66981e-02 -2.72462e-02 -1.06343e+00
       H -5.66981e-02  2.72462e-02  2.75680e+00
2
# CELL(abcABC):    7.93766     7.93766     7.93766    90.00000    90.00000    90.00000  Step:          35  Bead:       0 positions{angstrom}  cell{angstrom}
       H  5.81981e-02 -2.82420e-02 -1.10051e+00
       H -5.81981e-02  2.82420e-02  2.79388e+00
2
# CELL(abcABC):    7.93766     7.93766     7.93766    90.00000    90.00000    90.00000  Step:          36  Bead:       0 positions{angstrom}  cell{angstrom}
       H  5.97702e-02 -2.93007e-02 -1.13678e+00
       H -5.97702e-02  2.93007e-02  2.83014e+00
2
# CELL(abcABC):    7.93766     7.93766     7.93766    90.00000    90.00000    90.00000  Step:          37  Bead:       0 positions{angstrom}  cell{angstrom}
       H  6.12864e-02 -3.03945e-02 -1.17216e+00
       H -6.12864e-02  3.03945e-02  2.86553e+00
2
# CELL(abcABC):    7.93766     7.93766     7.93766    90.00000    90.00000    90.00000  Step:          38  Bead:       0 positions{angstrom}  cell{angstrom}
       H  6.26526e-02 -3.15183e-02 -1.20659e+00
       H -6.26526e-02  3.15183e-02  2.89995e+00
2
# CELL(abcABC):    7.93766     7.93766     7.93766    90.00000    90.00000    90.00000  Step:          39  Bead:       0 positions{angstrom}  cell{angstrom}
       H  6.40437e-02 -3.26545e-02 -1.24004e+00
       H -6.40437e-02  3.26545e-02  2.93340e+00
2
# CELL(abcABC):    7.93766     7.93766     7.93766    90.00000    90.00000    90.00000  Step:          40  Bead:       0 positions{angstrom}  cell{angstrom}
       H  6.54755e-02 -3.38642e-02 -1.27246e+00
       H -6.54755e-02  3.38642e-02  2.96583e+00
2
# CELL(abcABC):    7.93766     7.93766     7.93766    90.00000    90.00000    90.00000  Step:          41  Bead:       0 positions{angstrom}  cell{angstrom}
       H  6.69682e-02 -3.50890e-02 -1.30387e+00
       H -6.69682e-02  3.50890e-02  2.99723e+00
2
# CELL(abcABC):    7.93766     7.93766     7.93766    90.00000    90.00000    90.00000  Step:          42  Bead:       0 positions{angstrom}  cell{angstrom}
       H  6.84021e-02 -3.61749e-02 -1.33418e+00
       H -6.84021e-02  3.61749e-02  3.02754e+00
2
# CELL(abcABC):    7.93766     7.93766     7.93766    90.00000    90.00000    90.00000  Step:          43  Bead:       0 positions{angstrom}  cell{angstrom}
       H  6.98466e-02 -3.72442e-02 -1.36339e+00
       H -6.98466e-02  3.72442e-02  3.05676e+00
2
# CELL(abcABC):    7.93766     7.93766     7.93766    90.00000    90.00000    90.00000  Step:          44  Bead:       0 positions{angstrom}  cell{angstrom}
       H  7.13217e-02 -3.83783e-02 -1.39152e+00
       H -7.13217e-02  3.83783e-02  3.08488e+00
2
# CELL(abcABC):    7.93766     7.93766     7.93766    90.00000    90.00000    90.00000  Step:          45  Bead:       0 positions{angstrom}  cell{angstrom}
       H  7.27419e-02 -3.93277e-02 -1.41869e+00
       H -7.27419e-02  3.93277e-02  3.11206e+00
2
# CELL(abcABC):    7.93766     7.93766     7.93766    90.00000    90.00000    90.00000  Step:          46  Bead:       0 positions{angstrom}  cell{angstrom}
       H  7.41603e-02 -4.04795e-02 -1.44479e+00
       H -7.41603e-02  4.04795e-02  3.13816e+00
2
# CELL(abcABC):    7.93766     7.93766     7.93766    90.00000    90.00000    90.00000  Step:          47  Bead:       0 positions{angstrom}  cell{angstrom}
       H  7.56580e-02 -4.17047e-02 -1.46982e+00
       H -7.56580e-02  4.17047e-02  3.16318e+00
2
# CELL(abcABC):    7.93766     7.93766     7.93766    90.00000    90.00000    90.00000  Step:          48  Bead:       0 positions{angstrom}  cell{angstrom}
       H  7.72281e-02 -4.28487e-02 -1.49380e+00
       H -7.72281e-02  4.28487e-02  3.18717e+00
2
# CELL(abcABC):    7.93766     7.93766     7.93766    90.00000    90.00000    90.00000  Step:          49  Bead:       0 positions{angstrom}  cell{angstrom}
       H  7.86980e-02 -4.38889e-02 -1.51661e+00
       H -7.86980e-02  4.38889e-02  3.20998e+00
2
# CELL(abcABC):    7.93766     7.93766     7.93766    90.00000    90.00000    90.00000  Step:          50  Bead:       0 positions{angstrom}  cell{angstrom}
       H  8.01596e-02 -4.50148e-02 -1.53832e+00
       H -8.01596e-02  4.50148e-02  3.23168e+00
2
# CELL(abcABC):    7.93766     7.93766     7.93766    90.00000    90.00000    90.00000  Step:          51  Bead:       0 positions{angstrom}  cell{angstrom}
       H  8.15815e-02 -4.62400e-02 -1.55883e+00
       H -8.15815e-02  4.62400e-02  3.25220e+00
2
# CELL(abcABC):    7.93766     7.93766     7.93766    90.00000    90.00000    90.00000  Step:          52  Bead:       0 positions{angstrom}  cell{angstrom}
       H  8.30627e-02 -4.73150e-02 -1.57814e+00
       H -8.30627e-02  4.73150e-02  3.27151e+00
2
# CELL(abcABC):    7.93766     7.93766     7.93766    90.00000    90.00000    90.00000  Step:          53  Bead:       0 positions{angstrom}  cell{angstrom}
       H  8.44603e-02 -4.82944e-02 -1.59619e+00
       H -8.44603e-02  4.82944e-02  3.28956e+00
2
# CELL(abcABC):    7.93766     7.93766     7.93766    90.00000    90.00000    90.00000  Step:          54  Bead:       0 positions{angstrom}  cell{angstrom}
       H  8.58311e-02 -4.91573e-02 -1.61310e+00
       H -8.58311e-02  4.91573e-02  3.30647e+00
2
# CELL(abcABC):    7.93766     7.93766     7.93766    90.00000    90.00000    90.00000  Step:          55  Bead:       0 positions{angstrom}  cell{angstrom}
       H  8.71976e-02 -5.00543e-02 -1.62882e+00
       H -8.71976e-02  5.00543e-02  3.32219e+00
2
# CELL(abcABC):    7.93766     7.93766     7.93766    90.00000    90.00000    90.00000  Step:          56  Bead:       0 positions{angstrom}  cell{angstrom}
       H  8.86321e-02 -5.09551e-02 -1.64338e+00
       H -8.86321e-02  5.09551e-02  3.33675e+00
2
# CELL(abcABC):    7.93766     7.93766     7.93766    90.00000    90.00000    90.00000  Step:          57  Bead:       0 positions{angstrom}  cell{angstrom}
       H  9.01076e-02 -5.18068e-02 -1.65669e+00
       H -9.01076e-02  5.18068e-02  3.35006e+00
2
# CELL(abcABC):    7.93766     7.93766     7.93766    90.00000    90.00000    90.00000  Step:          58  Bead:       0 positions{angstrom}  cell{angstrom}
       H  9.15655e-02 -5.27093e-02 -1.66882e+00
       H -9.15655e-02  5.27093e-02  3.36218e+00
2
# CELL(abcABC):    7.93766     7.93766     7.93766    90.00000    90.00000    90.00000  Step:          59  Bead:       0 positions{angstrom}  cell{angstrom}
       H  9.30378e-02 -5.35744e-02 -1.67973e+00
       H -9.30378e-02  5.35744e-02  3.37310e+00
2
# CELL(abcABC):    7.93766     7.93766     7.93766    90.00000    90.00000    90.00000  Step:          60  Bead:       0 positions{angstrom}  cell{angstrom}
       H  9.44404e-02 -5.43872e-02 -1.68951e+00
       H -9.44404e-02  5.43872e-02  3.38288e+00
2
# CELL(abcABC):    7.93766     7.93766     7.93766    90.00000    90.00000    90.00000  Step:          61  Bead:       0 positions{angstrom}  cell{angstrom}
       H  9.58601e-02 -5.51457e-02 -1.69815e+00
       H -9.58601e-02  5.51457e-02  3.39152e+00
2
# CELL(abcABC):    7.93766     7.93766     7.93766    90.00000    90.00000    90.00000  Step:          62  Bead:       0 positions{angstrom}  cell{angstrom}
       H  9.72566e-02 -5.59237e-02 -1.70557e+00
       H -9.72566e-02  5.59237e-02  3.39893e+00
2
# CELL(abcABC):    7.93766     7.93766     7.93766    90.00000    90.00000    90.00000  Step:          63  Bead:       0 positions{angstrom}  cell{angstrom}
       H  9.86571e-02 -5.66215e-02 -1.71184e+00
       H -9.86571e-02  5.66215e-02  3.40520e+00
2
# CELL(abcABC):    7.93766     7.93766     7.93766    90.00000    90.00000    90.00000  Step:          64  Bead:       0 positions{angstrom}  cell{angstrom}
       H  1.00101e-01 -5.72259e-02 -1.71689e+00
       H -1.00101e-01  5.72259e-02  3.41026e+00
2
# CELL(abcABC):    7.93766     7.93766     7.93766    90.00000    90.00000    90.00000  Step:          65  Bead:       0 positions{angstrom}  cell{angstrom}
       H  1.01478e-01 -5.79448e-02 -1.72079e+00
       H -1.01478e-01  5.79448e-02  3.41416e+00
2
# CELL(abcABC):    7.93766     7.93766     7.93766    90.00000    90.00000    90.00000  Step:          66  Bead:       0 positions{angstrom}  cell{angstrom}
       H  1.02916e-01 -5.86858e-02 -1.72358e+00
       H -1.02916e-01  5.86858e-02  3.41695e+00
2
# CELL(abcABC):    7.93766     7.93766     7.93766    90.00000    90.00000    90.00000  Step:          67  Bead:       0 positions{angstrom}  cell{angstrom}
       H  1.04360e-01 -5.94300e-02 -1.72529e+00
       H -1.04360e-01  5.94300e-02  3.41865e+00
2
# CELL(abcABC):    7.93766     7.93766     7.93766    90.00000    90.00000    90.00000  Step:          68  Bead:       0 positions{angstrom}  cell{angstrom}
       H  1.05839e-01 -6.01781e-02 -1.72600e+00
       H -1.05839e-01  6.01781e-02  3.41936e+00
2
# CELL(abcABC):    7.93766     7.93766     7.93766    90.00000    90.00000    90.00000  Step:          69  Bead:       0 positions{angstrom}  cell{angstrom}
       H  1.07268e-01 -6.09099e-02 -1.72566e+00
       H -1.07268e-01  6.09099e-02  3.41902e+00
2
# CELL(abcABC):    7.93766     7.93766     7.93766    90.00000    90.00000    90.00000  Step:          70  Bead:       0 positions{angstrom}  cell{angstrom}
       H  1.08733e-01 -6.16895e-02 -1.72425e+00
       H -1.08733e-01  6.16895e-02  3.41761e+00
2
# CELL(abcABC):    7.93766     7.93766     7.93766    90.00000    90.00000    90.00000  Step:          71  Bead:       0 positions{angstrom}  cell{angstrom}
       H  1.10144e-01 -6.24492e-02 -1.72172e+00
       H -1.10144e-01  6.24492e-02  3.41509e+00
2
# CELL(abcABC):    7.93766     7.93766     7.93766    90.00000    90.00000    90.00000  Step:          72  Bead:       0 positions{angstrom}  cell{angstrom}
       H  1.11435e-01 -6.32695e-02 -1.71815e+00
       H -1.11435e-01  6.32695e-02  3.41152e+00
2
# CELL(abcABC):    7.93766     7.93766     7.93766    90.00000    90.00000    90.00000  Step:          73  Bead:       0 positions{angstrom}  cell{angstrom}
       H  1.12557e-01 -6.40563e-02 -1.71344e+00
       H -1.12557e-01  6.40563e-02  3.40680e+00
2
# CELL(abcABC):    7.93766     7.93766     7.93766    90.00000    90.00000    90.00000  Step:          74  Bead:       0 positions{angstrom}  cell{angstrom}
       H  1.13592e-01 -6.48764e-02 -1.70770e+00
       H -1.13592e-01  6.48764e-02  3.40107e+00
2
# CELL(abcABC):    7.93766     7.93766     7.93766    90.00000    90.00000    90.00000  Step:          75  Bead:       0 positions{angstrom}  cell{angstrom}
       H  1.14584e-01 -6.56715e-02 -1.70087e+00
       H -1.14584e-01  6.56715e-02  3.39424e+00
2
# CELL(abcABC):    7.93766     7.93766     7.93766    90.00000    90.00000    90.00000  Step:          76  Bead:       0 positions{angstrom}  cell{angstrom}
       H  1.15565e-01 -6.63800e-02 -1.69285e+00
       H -1.15565e-01  6.63800e-02  3.38622e+00
2
# CELL(abcABC):    7.93766     7.93766     7.93766    90.00000    90.00000    90.00000  Step:          77  Bead:       0 positions{angstrom}  cell{angstrom}
       H  1.16666e-01 -6.69321e-02 -1.68390e+00
       H -1.16666e-01  6.69321e-02  3.37726e+00
2
# CELL(abcABC):    7.93766     7.93766     7.93766    90.00000    90.00000    90.00000  Step:          78  Bead:       0 positions{angstrom}  cell{angstrom}
       H  1.17858e-01 -6.74049e-02 -1.67388e+00
       H -1.17858e-01  6.74049e-02  3.36725e+00
2
# CELL(abcABC):    7.93766     7.93766     7.93766    90.00000    90.00000    90.00000  Step:          79  Bead:       0 positions{angstrom}  cell{angstrom}
       H  1.18816e-01 -6.79188e-02 -1.66274e+00
       H -1.18816e-01  6.79188e-02  3.35610e+00
2
# CELL(abcABC):    7.93766     7.93766     7.93766    90.00000    90.00000    90.00000  Step:          80  Bead:       0 positions{angstrom}  cell{angstrom}
       H  1.19804e-01 -6.85049e-02 -1.65046e+00
       H -1.19804e-01  6.85049e-02  3.34383e+00
2
# CELL(abcABC):    7.93766     7.93766     7.93766    90.00000    90.00000    90.00000  Step:          81  Bead:       0 positions{angstrom}  cell{angstrom}
       H  1.20787e-01 -6.92071e-02 -1.63701e+00
       H -1.20787e-01  6.92071e-02  3.33037e+00
2
# CELL(abcABC):    7.93766     7.93766     7.93766    90.00000    90.00000    90.00000  Step:          82  Bead:       0 positions{angstrom}  cell{angstrom}
       H  1.21699e-01 -6.98136e-02 -1.62250e+00
       H -1.21699e-01  6.98136e-02  3.31587e+00
2
# CELL(abcABC):    7.93766     7.93766     7.93766    90.00000    90.00000    90.00000  Step:          83  Bead:       0 positions{angstrom}  cell{angstrom}
       H  1.22546e-01 -7.03298e-02 -1.60697e+00
       H -1.22546e-01  7.03298e-02  3.30034e+00
2
# CELL(abcABC):    7.93766     7.93766     7.93766    90.00000    90.00000    90.00000  Step:          84  Bead:       0 positions{angstrom}  cell{angstrom}
       H  1.23380e-01 -7.07727e-02 -1.59034e+00
       H -1.23380e-01  7.07727e-02  3.28371e+00
2
# CELL(abcABC):    7.93766     7.93766     7.93766    90.00000    90.00000    90.00000  Step:          85  Bead:       0 positions{angstrom}  cell{angstrom}
       H  1.24139e-01 -7.12337e-02 -1.57277e+00
       H -1.24139e-01  7.12337e-02  3.26613e+00
2
# CELL(abcABC):    7.93766     7.93766     7.93766    90.00000    90.00000    90.00000  Step:          86  Bead:       0 positions{angstrom}  cell{angstrom}
       H  1.24884e-01 -7.16805e-02 -1.55417e+00
       H -1.24884e-01  7.16805e-02  3.24754e+00
2
# CELL(abcABC):    7.93766     7.93766     7.93766    90.00000    90.00000    90.00000  Step:          87  Bead:       0 positions{angstrom}  cell{angstrom}
       H  1.25583e-01 -7.21844e-02 -1.53471e+00
       H -1.25583e-01  7.21844e-02  3.22807e+00
2
# CELL(abcABC):    7.93766     7.93766     7.93766    90.00000    90.00000    90.00000  Step:          88  Bead:       0 positions{angstrom}  cell{angstrom}
       H  1.26247e-01 -7.26793e-02 -1.51426e+00
       H -1.26247e-01  7.26793e-02  3.20762e+00
2
# CELL(abcABC):    7.93766     7.93766     7.93766    90.00000    90.00000    90.00000  Step:          89  Bead:       0 positions{angstrom}  cell{angstrom}
       H  1.27006e-01 -7.31943e-02 -1.49299e+00
       H -1.27006e-01  7.31943e-02  3.18635e+00
2
# CELL(abcABC):    7.93766     7.93766     7.93766    90.00000    90.00000    90.00000  Step:          90  Bead:       0 positions{angstrom}  cell{angstrom}
       H  1.27690e-01 -7.37616e-02 -1.47086e+00
       H -1.27690e-01  7.37616e-02  3.16423e+00
2
# CELL(abcABC):    7.93766     7.93766     7.93766    90.00000    90.00000    90.00000  Step:          91  Bead:       0 positions{angstrom}  cell{angstrom}
       H  1.28304e-01 -7.42834e-02 -1.44778e+00
       H -1.28304e-01  7.42834e-02  3.14115e+00
2
# CELL(abcABC):    7.93766     7.93766     7.93766    90.00000    90.00000    90.00000  Step:          92  Bead:       0 positions{angstrom}  cell{angstrom}
       H  1.28886e-01 -7.47403e-02 -1.42388e+00
       H -1.28886e-01  7.47403e-02  3.11725e+00
2
# CELL(abcABC):    7.93766     7.93766     7.93766    90.00000    90.00000    90.00000  Step:          93  Bead:       0 positions{angstrom}  cell{angstrom}
       H  1.29474e-01 -7.52415e-02 -1.39904e+00
       H -1.29474e-01  7.52415e-02  3.09241e+00
2
# CELL(abcABC):    7.93766     7.93766     7.93766    90.00000    90.00000    90.00000  Step:          94  Bead:       0 positions{angstrom}  cell{angstrom}
       H  1.30111e-01 -7.57112e-02 -1.37343e+00
       H -1.30111e-01  7.57112e-02  3.06680e+00
2
# CELL(abcABC):    7.93766     7.93766     7.93766    90.00000    90.00000    90.00000  Step:          95  Bead:       0 positions{angstrom}  cell{angstrom}
       H  1.30775e-01 -7.61576e-02 -1.34711e+00
       H -1.30775e-01  7.61576e-02  3.04048e+00
2
# CELL(abcABC):    7.93766     7.93766     7.93766    90.00000    90.00000    90.00000  Step:          96  Bead:       0 positions{angstrom}  cell{angstrom}
       H  1.31398e-01 -7.67434e-02 -1.31984e+00
       H -1.31398e-01  7.67434e-02  3.01321e+00
2
# CELL(abcABC):    7.93766     7.93766     7.93766    90.00000    90.00000    90.00000  Step:          97  Bead:       0 positions{angstrom}  cell{angstrom}
       H  1.31886e-01 -7.74281e-02 -1.29173e+00
       H -1.31886e-01  7.74281e-02  2.98510e+00
2
# CELL(abcABC):    7.93766     7.93766     7.93766    90.00000    90.00000    90.00000  Step:          98  Bead:       0 positions{angstrom}  cell{angstrom}
       H  1.32309e-01 -7.80894e-02 -1.26288e+00
       H -1.32309e-01  7.80894e-02  2.95624e+00
2
# CELL(abcABC):    7.93766     7.93766     7.93766    90.00000    90.00000    90.00000  Step:          99  Bead:       0 positions{angstrom}  cell{angstrom}
       H  1.32727e-01 -7.87076e-02 -1.23325e+00
       H -1.32727e-01  7.87076e-02  2.92662e+00
2
# CELL(abcABC):    7.93766     7.93766     7.93766    90.00000    90.00000    90.00000  Step:         100  Bead:       0 positions{angstrom}  cell{angstrom}
       H  1.33167e-01 -7.92495e-02 -1.20293e+00
       H -1.33167e-01  7.92495e-02  2.89630e+00
2
# CELL(abcABC):    7.93766     7.93766     7.93766    90.00000    90.00000    90.00000  Step:         101  Bead:       0 positions{angstrom}  cell{angstrom}
       H  1.33626e-01 -7.98562e-02 -1.17204e+00
       H -1.33626e-01  7.98562e-02  2.86541e+00
2
# CELL(abcABC):    7.93766     7.93766     7.93766    90.00000    90.00000    90.00000  Step:         102  Bead:       0 positions{angstrom}  cell{angstrom}
       H  1.34077e-01 -8.05933e-02 -1.14042e+00
       H -1.34077e-01  8.05933e-02  2.83379e+00
2
# CELL(abcABC):    7.93766     7.93766     7.93766    90.00000    90.00000    90.00000  Step:         103  Bead:       0 positions{angstrom}  cell{angstrom}
       H  1.34517e-01 -8.11922e-02 -1.10824e+00
       H -1.34517e-01  8.11922e-02  2.80161e+00
2
# CELL(abcABC):    7.93766     7.93766     7.93766    90.00000    90.00000    90.00000  Step:         104  Bead:       0 positions{angstrom}  cell{angstrom}
       H  1.34919e-01 -8.18727e-02 -1.07551e+00
       H -1.34919e-01  8.18727e-02  2.76888e+00
2
# CELL(abcABC):    7.93766     7.93766     7.93766    90.00000    90.00000    90.00000  Step:         105  Bead:       0 positions{angstrom}  cell{angstrom}
       H  1.35309e-01 -8.26045e-02 -1.04233e+00
       H -1.35309e-01  8.26045e-02  2.73570e+00
2
# CELL(abcABC):    7.93766     7.93766     7.93766    90.00000    90.00000    90.00000  Step:         106  Bead:       0 positions{angstrom}  cell{angstrom}
       H  1.35754e-01 -8.33178e-02 -1.00876e+00
       H -1.35754e-01  8.33178e-02  2.70213e+00
2
# CELL(abcABC):    7.93766     7.93766     7.93766    90.00000    90.00000    90.00000  Step:         107  Bead:       0 positions{angstrom}  cell{angstrom}
       H  1.36203e-01 -8.39678e-02 -9.74867e-01
       H -1.36203e-01  8.39678e-02  2.66823e+00
2
# CELL(abcABC):    7.93766     7.93766     7.93766    90.00000    90.00000    90.00000  Step:         108  Bead:       0 positions{angstrom}  cell{angstrom}
       H  1.36713e-01 -8.46450e-02 -9.40678e-01
       H -1.36713e-01  8.46450e-02  2.63405e+00
2
# CELL(abcABC):    7.93766     7.93766     7.93766    90.00000    90.00000    90.00000  Step:         109  Bead:       0 positions{angstrom}  cell{angstrom}
       H  1.37325e-01 -8.53489e-02 -9.06362e-01
       H -1.37325e-01  8.53489e-02  2.59973e+00
2
# CELL(abcABC):    7.93766     7.93766     7.93766    90.00000    90.00000    90.00000  Step:         110  Bead:       0 positions{angstrom}  cell{angstrom}
       H  1.37869e-01 -8.60600e-02 -8.71808e-01
       H -1.37869e-01  8.60600e-02  2.56517e+00
2
# CELL(abcABC):    7.93766     7.93766     7.93766    90.00000    90.00000    90.00000  Step:         111  Bead:       0 positions{angstrom}  cell{angstrom}
       H  1.38502e-01 -8.67884e-02 -8.37222e-01
       H -1.38502e-01  8.67884e-02  2.53059e+00
2
# CELL(abcABC):    7.93766     7.93766     7.93766    90.00000    90.00000    90.00000  Step:         112  Bead:       0 positions{angstrom}  cell{angstrom}
       H  1.39121e-01 -8.76011e-02 -8.02572e-01
       H -1.39121e-01  8.76011e-02  2.49594e+00
2
# CELL(abcABC):    7.93766     7.93766     7.93766    90.00000    90.00000    90.00000  Step:         113  Bead:       0 positions{angstrom}  cell{angstrom}
       H  1.39696e-01 -8.83904e-02 -7.67966e-01
       H -1.39696e-01  8.83904e-02  2.46133e+00
2
# CELL(abcABC):    7.93766     7.93766     7.93766    90.00000    90.00000    90.00000  Step:         114  Bead:       0 positions{angstrom}  cell{angstrom}
       H  1.40166e-01 -8.91443e-02 -7.33702e-01
       H -1.40166e-01  8.91443e-02  2.42707e+00
2
# CELL(abcABC):    7.93766     7.93766     7.93766    90.00000    90.00000    90.00000  Step:         115  Bead:       0 positions{angstrom}  cell{angstrom}
       H  1.40547e-01 -8.99008e-02 -6.99723e-01
       H -1.40547e-01  8.99008e-02  2.39309e+00
2
# CELL(abcABC):    7.93766     7.93766     7.93766    90.00000    90.00000    90.00000  Step:         116  Bead:       0 positions{angstrom}  cell{angstrom}
       H  1.40914e-01 -9.06759e-02 -6.66054e-01
       H -1.40914e-01  9.06759e-02  2.35942e+00
2
# CELL(abcABC):    7.93766     7.93766     7.93766    90.00000    90.00000    90.00000  Step:         117  Bead:       0 positions{angstrom}  cell{angstrom}